 Induced current distribution on object surface
 Totol Number of Node        1479
 Totol Number of TriangLe        2734
 Totol Number of Line        3990
 "Frequency in Hz"  1.1000001E+10
VARIABLES = "x", "y", "z", "Re(x)","Re(y)","Re(z)","Imag(x)","Imag(y)","Imag(z)","Real","Imag","total"
 ZONE T="Mesh", N=        1479 ,E=        2734 , F=FEPOINT, ET=TRIANGLE
    0.6000000052E-02    0.0000000000E+00    0.0000000000E+00   -0.7442891598E-01    0.3073008919E+02    0.0000000000E+00    0.1697196960E+00   -0.5162670517E+02    0.0000000000E+00    0.3073017883E+02    0.5162698364E+02    0.6008069229E+02
    0.7069999725E-01   -0.7069999725E-01    0.0000000000E+00    0.4725194871E+00   -0.2071693987E+00    0.0000000000E+00   -0.3214690089E+00    0.1409434825E+00    0.0000000000E+00    0.5159397125E+00    0.3510091007E+00    0.6240202188E+00
   -0.6000000052E-02    0.0000000000E+00    0.0000000000E+00   -0.1126860380E+00    0.3061533165E+02    0.0000000000E+00    0.1051301956E+00   -0.5119567871E+02    0.0000000000E+00    0.3061553955E+02    0.5119578552E+02    0.5965165329E+02
   -0.7069999725E-01   -0.7069999725E-01    0.0000000000E+00   -0.4801749289E+00   -0.2115458548E+00    0.0000000000E+00    0.3084623814E+00    0.1358961761E+00    0.0000000000E+00    0.5247090459E+00    0.3370709121E+00    0.6236476898E+00
    0.7069999725E-01    0.7069999725E-01    0.0000000000E+00   -0.4953214228E+00   -0.2171665877E+00    0.0000000000E+00    0.3066747487E+00    0.1344571561E+00    0.0000000000E+00    0.5408369899E+00    0.3348553777E+00    0.6361075044E+00
   -0.7069999725E-01    0.7069999725E-01    0.0000000000E+00    0.4935617745E+00   -0.2174435705E+00    0.0000000000E+00   -0.3120840490E+00    0.1374917477E+00    0.0000000000E+00    0.5393375158E+00    0.3410284817E+00    0.6381107569E+00
    0.8025110699E-02   -0.2212909982E-02    0.0000000000E+00    0.1524099255E+02   -0.1460951614E+02    0.0000000000E+00    0.2254028893E+02   -0.3107836151E+02    0.0000000000E+00    0.2111222076E+02    0.3839178467E+02    0.4381386948E+02
    0.1005022041E-01   -0.4425819963E-02    0.0000000000E+00    0.2328251076E+02   -0.2584668159E+02    0.0000000000E+00    0.4277725697E+01   -0.8685069084E+01    0.0000000000E+00    0.3478686905E+02    0.9681392670E+01    0.3610894394E+02
    0.1206886023E-01   -0.6631660275E-02    0.0000000000E+00    0.1870712471E+02   -0.2296968269E+02    0.0000000000E+00   -0.9553618431E+01    0.8763458252E+01    0.0000000000E+00    0.2962368774E+02    0.1296417427E+02    0.3233624268E+02
    0.1409397088E-01   -0.8844570257E-02    0.0000000000E+00    0.7240209579E+01   -0.1047061825E+02    0.0000000000E+00   -0.1624220085E+02    0.1772795296E+02    0.0000000000E+00    0.1273006248E+02    0.2404348946E+02    0.2720558548E+02
    0.1611261070E-01   -0.1105041057E-01    0.0000000000E+00   -0.5444941044E+01    0.4008038998E+01    0.0000000000E+00   -0.1482722855E+02    0.1748922920E+02    0.0000000000E+00    0.6761047363E+01    0.2292858124E+02    0.2390463638E+02
    0.1813772134E-01   -0.1326332055E-01    0.0000000000E+00   -0.1427010822E+02    0.1487976933E+02    0.0000000000E+00   -0.7280239105E+01    0.9769654274E+01    0.0000000000E+00    0.2061658287E+02    0.1218392467E+02    0.2394768333E+02
    0.2015636116E-01   -0.1546916086E-01    0.0000000000E+00   -0.1597472477E+02    0.1812881660E+02    0.0000000000E+00    0.2569104433E+01   -0.1105589032E+01    0.0000000000E+00    0.2416290092E+02    0.2796895504E+01    0.2432423782E+02
    0.2218147181E-01   -0.1768206991E-01    0.0000000000E+00   -0.1051089859E+02    0.1321228027E+02    0.0000000000E+00    0.1009224224E+02   -0.1033552647E+02    0.0000000000E+00    0.1688322639E+02    0.1444563770E+02    0.2221980667E+02
    0.2420010976E-01   -0.1988791116E-01    0.0000000000E+00   -0.9101966023E+00    0.2987498999E+01    0.0000000000E+00    0.1239733887E+02   -0.1395737743E+02    0.0000000000E+00    0.3123076677E+01    0.1866821861E+02    0.1892765236E+02
    0.2622522041E-01   -0.2210082114E-01    0.0000000000E+00    0.8264462471E+01   -0.7649906158E+01    0.0000000000E+00    0.9125927925E+01   -0.1120425415E+02    0.0000000000E+00    0.1126154518E+02    0.1445053196E+02    0.1832048798E+02
    0.2824386209E-01   -0.2430666052E-01    0.0000000000E+00    0.1315868664E+02   -0.1399110699E+02    0.0000000000E+00    0.2147850990E+01   -0.3926701307E+01    0.0000000000E+00    0.1920682335E+02    0.4475739956E+01    0.1972141838E+02
    0.3026897274E-01   -0.2651957050E-01    0.0000000000E+00    0.1192568111E+02   -0.1378071117E+02    0.0000000000E+00   -0.5083080292E+01    0.4396428585E+01    0.0000000000E+00    0.1822443008E+02    0.6720587254E+01    0.1942411232E+02
    0.3228760883E-01   -0.2872541174E-01    0.0000000000E+00    0.5429462433E+01   -0.7381118298E+01    0.0000000000E+00   -0.9343552589E+01    0.9853057861E+01    0.0000000000E+00    0.9162967682E+01    0.1357883358E+02    0.1638122940E+02
    0.3431272134E-01   -0.3093832172E-01    0.0000000000E+00   -0.3115706205E+01    0.1950325012E+01    0.0000000000E+00   -0.9094239235E+01    0.1040778828E+02    0.0000000000E+00    0.3675784588E+01    0.1382126045E+02    0.1430170059E+02
    0.3633136302E-01   -0.3314416111E-01    0.0000000000E+00   -0.9925838470E+01    0.9945307732E+01    0.0000000000E+00   -0.4582340240E+01    0.6175866604E+01    0.0000000000E+00    0.1405102921E+02    0.7690199375E+01    0.1601782036E+02
    0.3835647181E-01   -0.3535707295E-01    0.0000000000E+00   -0.1200325775E+02    0.1318414211E+02    0.0000000000E+00    0.1665996671E+01   -0.6998350024E+00    0.0000000000E+00    0.1782974434E+02    0.1807017922E+01    0.1792108154E+02
    0.4037511349E-01   -0.3756291047E-01    0.0000000000E+00   -0.8665412903E+01    0.1034753036E+02    0.0000000000E+00    0.6734264374E+01   -0.6697476864E+01    0.0000000000E+00    0.1349669456E+02    0.9497711182E+01    0.1650355339E+02
    0.4240022227E-01   -0.3977582231E-01    0.0000000000E+00   -0.1648214221E+01    0.3022766829E+01    0.0000000000E+00    0.8333306313E+01   -0.9272975922E+01    0.0000000000E+00    0.3442924500E+01    0.1246723938E+02    0.1293390179E+02
    0.4441886395E-01   -0.4198165983E-01    0.0000000000E+00    0.5888523102E+01   -0.5430047512E+01    0.0000000000E+00    0.6092675686E+01   -0.7312200069E+01    0.0000000000E+00    0.8010001183E+01    0.9517823219E+01    0.1243981838E+02
    0.4644397274E-01   -0.4419457167E-01    0.0000000000E+00    0.1049572277E+02   -0.1124136639E+02    0.0000000000E+00    0.1157816529E+01   -0.2231861830E+01    0.0000000000E+00    0.1537948322E+02    0.2514308214E+01    0.1558365345E+02
    0.4846261069E-01   -0.4640041292E-01    0.0000000000E+00    0.1026805019E+02   -0.1184984589E+02    0.0000000000E+00   -0.3963392258E+01    0.3639979601E+01    0.0000000000E+00    0.1567965889E+02    0.5381257057E+01    0.1657738304E+02
    0.5048772320E-01   -0.4861332104E-01    0.0000000000E+00    0.5382511139E+01   -0.7202068329E+01    0.0000000000E+00   -0.7045919895E+01    0.7497899532E+01    0.0000000000E+00    0.8991174698E+01    0.1028899860E+02    0.1366399288E+02
    0.5250636116E-01   -0.5081916228E-01    0.0000000000E+00   -0.1851480842E+01    0.5808352828E+00    0.0000000000E+00   -0.6730659485E+01    0.7804362774E+01    0.0000000000E+00    0.1940451264E+01    0.1030581665E+02    0.1048690605E+02
    0.5453147367E-01   -0.5303207412E-01    0.0000000000E+00   -0.8170187950E+01    0.7913341999E+01    0.0000000000E+00   -0.3339655876E+01    0.4532440186E+01    0.0000000000E+00    0.1137422371E+02    0.5629948139E+01    0.1269130707E+02
    0.5655011162E-01   -0.5523791537E-01    0.0000000000E+00   -0.1077643871E+02    0.1156818771E+02    0.0000000000E+00    0.1179912925E+01   -0.5581941009E+00    0.0000000000E+00    0.1580995178E+02    0.1305287361E+01    0.1586374474E+02
    0.5857522041E-01   -0.5745082349E-01    0.0000000000E+00   -0.8507990837E+01    0.9957421303E+01    0.0000000000E+00    0.4557409763E+01   -0.4868929386E+01    0.0000000000E+00    0.1309718132E+02    0.6669066906E+01    0.1469736767E+02
    0.6059386209E-01   -0.5965666100E-01    0.0000000000E+00   -0.2366978407E+01    0.3784987211E+01    0.0000000000E+00    0.5354692459E+01   -0.6381624222E+01    0.0000000000E+00    0.4464159012E+01    0.8330537796E+01    0.9451273918E+01
    0.6261897087E-01   -0.6186957285E-01    0.0000000000E+00    0.4869371414E+01   -0.4123176098E+01    0.0000000000E+00    0.2970746279E+01   -0.4653219700E+01    0.0000000000E+00    0.6380545139E+01    0.5520668983E+01    0.8437366486E+01
    0.6463761628E-01   -0.6407541037E-01    0.0000000000E+00    0.9435455322E+01   -0.1001118374E+02    0.0000000000E+00   -0.8157353401E+00   -0.7010805011E+00    0.0000000000E+00    0.1375687504E+02    0.1075610518E+01    0.1379886055E+02
    0.6666272134E-01   -0.6628832221E-01    0.0000000000E+00    0.1134661102E+02   -0.1098753166E+02    0.0000000000E+00   -0.6066388130E+01    0.3667601585E+01    0.0000000000E+00    0.1579466438E+02    0.7088890076E+01    0.1731253242E+02
    0.6868135929E-01   -0.6849416345E-01    0.0000000000E+00    0.9786411285E+01   -0.1047831917E+02    0.0000000000E+00   -0.6634794235E+01    0.7128714561E+01    0.0000000000E+00    0.1433767891E+02    0.9738534927E+01    0.1733228493E+02
   -0.3000000026E-02    0.0000000000E+00    0.0000000000E+00   -0.1959979087E+00    0.3922044373E+02    0.0000000000E+00    0.8939298242E-01   -0.3477411270E+02    0.0000000000E+00    0.3922093201E+02    0.3477422714E+02    0.5241687012E+02
    0.1200000156E-05    0.0000000000E+00    0.0000000000E+00   -0.1680840999E+00    0.3882664108E+02    0.0000000000E+00    0.3712169454E-01   -0.2230226326E+02    0.0000000000E+00    0.3882700348E+02    0.2230229378E+02    0.4477643204E+02
    0.3001200035E-02    0.0000000000E+00    0.0000000000E+00   -0.9912896156E-01    0.3942652893E+02    0.0000000000E+00    0.8916338533E-01   -0.3485257721E+02    0.0000000000E+00    0.3942665100E+02    0.3485269165E+02    0.5262291336E+02
   -0.6867489219E-01   -0.6848709285E-01    0.0000000000E+00   -0.9989929199E+01   -0.1069844437E+02    0.0000000000E+00    0.6394421577E+01    0.6872689247E+01    0.0000000000E+00    0.1463746548E+02    0.9387357712E+01    0.1738901520E+02
   -0.6665625423E-01   -0.6628125161E-01    0.0000000000E+00   -0.1152996922E+02   -0.1114813423E+02    0.0000000000E+00    0.5751828671E+01    0.3359095097E+01    0.0000000000E+00    0.1603811264E+02    0.6660860062E+01    0.1736629295E+02
   -0.6463114172E-01   -0.6406833977E-01    0.0000000000E+00   -0.9484135628E+01   -0.1006299686E+02    0.0000000000E+00    0.5459845066E+00   -0.1014058828E+01    0.0000000000E+00    0.1382796955E+02    0.1151700616E+01    0.1387584782E+02
   -0.6261250377E-01   -0.6186250225E-01    0.0000000000E+00   -0.4799379826E+01   -0.4018838406E+01    0.0000000000E+00   -0.3145123243E+01   -0.4843711853E+01    0.0000000000E+00    0.6259800911E+01    0.5775235176E+01    0.8516950607E+01
   -0.6058739498E-01   -0.5964959413E-01    0.0000000000E+00    0.2574992895E+01    0.4097063065E+01    0.0000000000E+00   -0.5373685360E+01   -0.6477201939E+01    0.0000000000E+00    0.4839061260E+01    0.8416093826E+01    0.9708096504E+01
   -0.5856874958E-01   -0.5744375288E-01    0.0000000000E+00    0.8797751427E+01    0.1012833881E+02    0.0000000000E+00   -0.4479588032E+01   -0.4664053440E+01    0.0000000000E+00    0.1341579914E+02    0.6466846943E+01    0.1489307785E+02
   -0.5654364452E-01   -0.5523084104E-01    0.0000000000E+00    0.1080590439E+02    0.1164376354E+02    0.0000000000E+00   -0.9094181061E+00   -0.2477576584E+00    0.0000000000E+00    0.1588536358E+02    0.9425630569E+00    0.1591330338E+02
   -0.5452500284E-01   -0.5302500352E-01    0.0000000000E+00    0.8112819672E+01    0.7859135151E+01    0.0000000000E+00    0.3587119341E+01    0.4751893520E+01    0.0000000000E+00    0.1129530239E+02    0.5953815460E+01    0.1276838875E+02
   -0.5249989033E-01   -0.5081209540E-01    0.0000000000E+00    0.1655958533E+01    0.3404105008E+00    0.0000000000E+00    0.6796104908E+01    0.7866376400E+01    0.0000000000E+00    0.1690585136E+01    0.1039552402E+02    0.1053209400E+02
   -0.5048125237E-01   -0.4860625416E-01    0.0000000000E+00   -0.5664479733E+01   -0.7467300415E+01    0.0000000000E+00    0.6953697205E+01    0.7448958874E+01    0.0000000000E+00    0.9372668266E+01    0.1019023514E+02    0.1384513569E+02
   -0.4845613986E-01   -0.4639334232E-01    0.0000000000E+00   -0.1046306133E+02   -0.1208032703E+02    0.0000000000E+00    0.3827176332E+01    0.3447491884E+01    0.0000000000E+00    0.1598155022E+02    0.5150968552E+01    0.1679114151E+02
   -0.4643750191E-01   -0.4418750107E-01    0.0000000000E+00   -0.1061951733E+02   -0.1135468769E+02    0.0000000000E+00   -0.1351232529E+01   -0.2419098616E+01    0.0000000000E+00    0.1554680347E+02    0.2770896435E+01    0.1579180050E+02
   -0.4441239312E-01   -0.4197459295E-01    0.0000000000E+00   -0.5873609543E+01   -0.5409736156E+01    0.0000000000E+00   -0.6212543488E+01   -0.7504935741E+01    0.0000000000E+00    0.7985270023E+01    0.9742676735E+01    0.1259699535E+02
   -0.4239375144E-01   -0.3976875171E-01    0.0000000000E+00    0.1745911598E+01    0.3097693682E+01    0.0000000000E+00   -0.8393719673E+01   -0.9168994904E+01    0.0000000000E+00    0.3555828094E+01    0.1243080807E+02    0.1292938137E+02
   -0.4036864266E-01   -0.3755583987E-01    0.0000000000E+00    0.8765337944E+01    0.1048099995E+02    0.0000000000E+00   -0.6570227146E+01   -0.6561764240E+01    0.0000000000E+00    0.1366318035E+02    0.9285722733E+01    0.1651990128E+02
   -0.3835000098E-01   -0.3534999862E-01    0.0000000000E+00    0.1208442211E+02    0.1325585556E+02    0.0000000000E+00   -0.1525992274E+01   -0.5493684411E+00    0.0000000000E+00    0.1793741798E+02    0.1621868730E+01    0.1801059341E+02
   -0.3632489219E-01   -0.3313709050E-01    0.0000000000E+00    0.9900094032E+01    0.9897895813E+01    0.0000000000E+00    0.4693220615E+01    0.6289176464E+01    0.0000000000E+00    0.1399929237E+02    0.7847296715E+01    0.1604868507E+02
   -0.3430625424E-01   -0.3093125112E-01    0.0000000000E+00    0.3029668093E+01    0.1870465875E+01    0.0000000000E+00    0.9105788231E+01    0.1034334183E+02    0.0000000000E+00    0.3560552120E+01    0.1378042412E+02    0.1423297691E+02
   -0.3228114173E-01   -0.2871834114E-01    0.0000000000E+00   -0.5527932644E+01   -0.7483903408E+01    0.0000000000E+00    0.9185305595E+01    0.9700088501E+01    0.0000000000E+00    0.9304130554E+01    0.1335895061E+02    0.1627969360E+02
   -0.3026250191E-01   -0.2651250176E-01    0.0000000000E+00   -0.1198254871E+02   -0.1382035542E+02    0.0000000000E+00    0.4908840656E+01    0.4212639332E+01    0.0000000000E+00    0.1829162788E+02    0.6468620300E+01    0.1940172005E+02
   -0.2823739126E-01   -0.2429958992E-01    0.0000000000E+00   -0.1312905979E+02   -0.1386255169E+02    0.0000000000E+00   -0.2306967020E+01   -0.4126813889E+01    0.0000000000E+00    0.1909299660E+02    0.4727862835E+01    0.1966965103E+02
   -0.2621875145E-01   -0.2209375054E-01    0.0000000000E+00   -0.8044392586E+01   -0.7438171387E+01    0.0000000000E+00   -0.9261412621E+01   -0.1128268147E+02    0.0000000000E+00    0.1095621490E+02    0.1459700871E+02    0.1825133705E+02
   -0.2419364080E-01   -0.1988084055E-01    0.0000000000E+00    0.1090188622E+01    0.3145938873E+01    0.0000000000E+00   -0.1237138367E+02   -0.1388863850E+02    0.0000000000E+00    0.3329480886E+01    0.1859960747E+02    0.1889525986E+02
   -0.2217500098E-01   -0.1767499931E-01    0.0000000000E+00    0.1058454037E+02    0.1328581238E+02    0.0000000000E+00   -0.9977229118E+01   -0.1018407345E+02    0.0000000000E+00    0.1698662186E+02    0.1425694370E+02    0.2217669487E+02
   -0.2014989220E-01   -0.1546209026E-01    0.0000000000E+00    0.1599693775E+02    0.1816707802E+02    0.0000000000E+00   -0.2440889597E+01   -0.8998555541E+00    0.0000000000E+00    0.2420629501E+02    0.2601476908E+01    0.2434568596E+02
   -0.1813125052E-01   -0.1325625088E-01    0.0000000000E+00    0.1429692554E+02    0.1487241268E+02    0.0000000000E+00    0.7315824032E+01    0.9713329315E+01    0.0000000000E+00    0.2062985039E+02    0.1216018295E+02    0.2394704247E+02
   -0.1610614173E-01   -0.1104333997E-01    0.0000000000E+00    0.5546950817E+01    0.4065616131E+01    0.0000000000E+00    0.1454555511E+02    0.1711005974E+02    0.0000000000E+00    0.6877346516E+01    0.2245723343E+02    0.2348670387E+02
   -0.1408750005E-01   -0.8837499656E-02    0.0000000000E+00   -0.6978874683E+01   -0.1016510963E+02    0.0000000000E+00    0.1576249027E+02    0.1712259293E+02    0.0000000000E+00    0.1233021259E+02    0.2327314568E+02    0.2633768082E+02
   -0.1206239127E-01   -0.6624590140E-02    0.0000000000E+00   -0.1809015083E+02   -0.2216493797E+02    0.0000000000E+00    0.9172260284E+01    0.8275269508E+01    0.0000000000E+00    0.2861010551E+02    0.1235355949E+02    0.3116325569E+02
   -0.1004375052E-01   -0.4418749828E-02    0.0000000000E+00   -0.2236153221E+02   -0.2494335938E+02    0.0000000000E+00   -0.4162878513E+01   -0.8689064026E+01    0.0000000000E+00    0.3349939346E+02    0.9634800911E+01    0.3485740662E+02
   -0.8018639870E-02   -0.2205840312E-02    0.0000000000E+00   -0.1474702168E+02   -0.1407602978E+02    0.0000000000E+00   -0.2175215340E+02   -0.3050881386E+02    0.0000000000E+00    0.2038649750E+02    0.3746923828E+02    0.4265621948E+02
    0.6768818200E-01   -0.7069999725E-01    0.0000000000E+00    0.1206388092E+02   -0.2350969076E+01    0.0000000000E+00   -0.7538912296E+01    0.2141966105E+01    0.0000000000E+00    0.1229082012E+02    0.7837296486E+01    0.1457695007E+02
    0.6467636675E-01   -0.7069999725E-01    0.0000000000E+00    0.1040335751E+02   -0.3392610312E+01    0.0000000000E+00   -0.7791215420E+01    0.2714675963E+00    0.0000000000E+00    0.1094256115E+02    0.7795943260E+01    0.1343563938E+02
    0.6166454405E-01   -0.7069999725E-01    0.0000000000E+00    0.7555599689E+01   -0.7248179913E+00    0.0000000000E+00   -0.7930946350E+01   -0.3623153269E+00    0.0000000000E+00    0.7590286255E+01    0.7939218044E+01    0.1098378944E+02
    0.5865272507E-01   -0.7069999725E-01    0.0000000000E+00    0.5677953243E+01   -0.6758894324E+00    0.0000000000E+00   -0.5936215878E+01   -0.2564205229E+00    0.0000000000E+00    0.5718039989E+01    0.5941751480E+01    0.8246234894E+01
    0.5565504357E-01   -0.7069999725E-01    0.0000000000E+00    0.2620073557E+01   -0.3562049866E+00    0.0000000000E+00   -0.1904568672E+01   -0.2798667550E+00    0.0000000000E+00    0.2644176245E+01    0.1925021410E+01    0.3270684004E+01
    0.5264322087E-01   -0.7069999725E-01    0.0000000000E+00    0.1939886808E-01   -0.4955343902E-02    0.0000000000E+00    0.2592746019E+01   -0.2901887894E+00    0.0000000000E+00    0.2002177574E-01    0.2608934879E+01    0.2609011650E+01
    0.4963140190E-01   -0.7069999725E-01    0.0000000000E+00   -0.1437148213E+01    0.2891434431E+00    0.0000000000E+00    0.5894044399E+01   -0.3526288271E+00    0.0000000000E+00    0.1465946317E+01    0.5904583454E+01    0.6083839417E+01
    0.4661958292E-01   -0.7069999725E-01    0.0000000000E+00   -0.1534223676E+01    0.5316438079E+00    0.0000000000E+00    0.6869290829E+01   -0.3761805594E+00    0.0000000000E+00    0.1623726368E+01    0.6879583359E+01    0.7068603516E+01
    0.4362190142E-01   -0.7069999725E-01    0.0000000000E+00   -0.7207289338E+00    0.5831211805E+00    0.0000000000E+00    0.5501996517E+01   -0.3396461010E+00    0.0000000000E+00    0.9270817041E+00    0.5512469769E+01    0.5589884281E+01
    0.4061008245E-01   -0.7069999725E-01    0.0000000000E+00    0.3840899467E+00    0.6192313433E+00    0.0000000000E+00    0.2614674568E+01   -0.1796435863E+00    0.0000000000E+00    0.7286786437E+00    0.2620838642E+01    0.2720251322E+01
    0.3759825975E-01   -0.7069999725E-01    0.0000000000E+00    0.1149109960E+01    0.4699814320E+00    0.0000000000E+00   -0.5064995885E+00    0.3162572533E-01    0.0000000000E+00    0.1241505623E+01    0.5074859858E+00    0.1341222644E+01
    0.3458644450E-01   -0.7069999725E-01    0.0000000000E+00    0.1035826683E+01    0.3326868415E+00    0.0000000000E+00   -0.2667657137E+01    0.2572601736E+00    0.0000000000E+00    0.1087941885E+01    0.2680032969E+01    0.2892437458E+01
    0.3158876300E-01   -0.7069999725E-01    0.0000000000E+00   -0.5947599653E-02    0.1143219694E+00    0.0000000000E+00   -0.3001742601E+01    0.5869234204E+00    0.0000000000E+00    0.1144765764E+00    0.3058584452E+01    0.3060725927E+01
    0.2857694216E-01   -0.7069999725E-01    0.0000000000E+00   -0.1555335402E+01   -0.4321586341E-02    0.0000000000E+00   -0.1539741516E+01    0.6955757737E+00    0.0000000000E+00    0.1555341363E+01    0.1689564943E+01    0.2296457291E+01
    0.2556512132E-01   -0.7069999725E-01    0.0000000000E+00   -0.2828616381E+01   -0.4636466876E-01    0.0000000000E+00    0.5437344909E+00    0.6730086207E+00    0.0000000000E+00    0.2828996420E+01    0.8652096987E+00    0.2958345652E+01
    0.2255330235E-01   -0.7069999725E-01    0.0000000000E+00   -0.3464420319E+01   -0.1900422126E+00    0.0000000000E+00    0.2296534538E+01    0.6450501084E+00    0.0000000000E+00    0.3469628811E+01    0.2385405779E+01    0.4210520744E+01
    0.1954147965E-01   -0.7069999725E-01    0.0000000000E+00   -0.3113232374E+01   -0.1696318984E+00    0.0000000000E+00    0.2792169809E+01    0.4428914785E+00    0.0000000000E+00    0.3117850304E+01    0.2827077150E+01    0.4208724022E+01
    0.1654380187E-01   -0.7069999725E-01    0.0000000000E+00   -0.1741937280E+01   -0.1864975095E+00    0.0000000000E+00    0.1728878975E+01    0.3150669634E+00    0.0000000000E+00    0.1751892328E+01    0.1757353067E+01    0.2481414080E+01
    0.1353198010E-01   -0.7069999725E-01    0.0000000000E+00    0.2933989465E-01   -0.2485594004E+00    0.0000000000E+00   -0.3656055033E+00    0.1975927502E+00    0.0000000000E+00    0.2502850592E+00    0.4155842364E+00    0.4851318002E+00
    0.1052016020E-01   -0.7069999725E-01    0.0000000000E+00    0.1534278512E+01   -0.3226042390E+00    0.0000000000E+00   -0.2486615658E+01    0.2179986686E+00    0.0000000000E+00    0.1567827821E+01    0.2496153355E+01    0.2947688103E+01
    0.7508340292E-02   -0.7069999725E-01    0.0000000000E+00    0.2263099432E+01   -0.3962337971E+00    0.0000000000E+00   -0.3557216644E+01    0.3048996627E+00    0.0000000000E+00    0.2297524691E+01    0.3570259809E+01    0.4245630264E+01
    0.4510660190E-02   -0.7069999725E-01    0.0000000000E+00    0.1955091357E+01   -0.4849151075E+00    0.0000000000E+00   -0.3044144869E+01    0.4116053879E+00    0.0000000000E+00    0.2014329910E+01    0.3071846008E+01    0.3673385620E+01
    0.1498840051E-02   -0.7069999725E-01    0.0000000000E+00    0.8046944141E+00   -0.5136013031E+00    0.0000000000E+00   -0.1065975547E+01    0.5402419567E+00    0.0000000000E+00    0.9546304941E+00    0.1195058703E+01    0.1529537439E+01
   -0.1512980089E-02   -0.7069999725E-01    0.0000000000E+00   -0.7361719608E+00   -0.5453142524E+00    0.0000000000E+00    0.1297866344E+01    0.4243527949E+00    0.0000000000E+00    0.9161423445E+00    0.1365478754E+01    0.1644338369E+01
   -0.4524799995E-02   -0.7069999725E-01    0.0000000000E+00   -0.1916386962E+01   -0.4710366428E+00    0.0000000000E+00    0.3022889853E+01    0.3945126235E+00    0.0000000000E+00    0.1973427057E+01    0.3048524857E+01    0.3631517172E+01
   -0.7522480562E-02   -0.7069999725E-01    0.0000000000E+00   -0.2223571777E+01   -0.4053730965E+00    0.0000000000E+00    0.3526261091E+01    0.3176266253E+00    0.0000000000E+00    0.2260221004E+01    0.3540537119E+01    0.4200476646E+01
   -0.1053430047E-01   -0.7069999725E-01    0.0000000000E+00   -0.1499761105E+01   -0.2935228050E+00    0.0000000000E+00    0.2396867275E+01    0.1685933024E+00    0.0000000000E+00    0.1528214335E+01    0.2402789354E+01    0.2847601652E+01
   -0.1354612038E-01   -0.7069999725E-01    0.0000000000E+00    0.1494899392E-01   -0.2376546860E+00    0.0000000000E+00    0.2290738225E+00    0.1894450337E+00    0.0000000000E+00    0.2381243855E+00    0.2972612381E+00    0.3808772266E+00
   -0.1655794121E-01   -0.7069999725E-01    0.0000000000E+00    0.1723555207E+01   -0.1850365251E+00    0.0000000000E+00   -0.1852697015E+01    0.2661283910E+00    0.0000000000E+00    0.1733459353E+01    0.1871713281E+01    0.2551115751E+01
   -0.1955562085E-01   -0.7069999725E-01    0.0000000000E+00    0.2997245789E+01   -0.1728630662E+00    0.0000000000E+00   -0.2878646851E+01    0.4309108555E+00    0.0000000000E+00    0.3002226591E+01    0.2910720110E+01    0.4181585312E+01
   -0.2256744169E-01   -0.7069999725E-01    0.0000000000E+00    0.3486194849E+01   -0.8805785328E-01    0.0000000000E+00   -0.2351396322E+01    0.5937407613E+00    0.0000000000E+00    0.3487306833E+01    0.2425199509E+01    0.4247693539E+01
   -0.2557926066E-01   -0.7069999725E-01    0.0000000000E+00    0.2855632782E+01   -0.1478727907E+00    0.0000000000E+00   -0.5333946943E+00    0.7148768306E+00    0.0000000000E+00    0.2859458923E+01    0.8919410110E+00    0.2995340347E+01
   -0.2859108150E-01   -0.7069999725E-01    0.0000000000E+00    0.1488300800E+01   -0.1294521615E-01    0.0000000000E+00    0.1687304378E+01    0.6866919398E+00    0.0000000000E+00    0.1488357067E+01    0.1821686625E+01    0.2352392197E+01
   -0.3160290048E-01   -0.7069999725E-01    0.0000000000E+00    0.1027388200E+00    0.1370618492E+00    0.0000000000E+00    0.3015097380E+01    0.5095561147E+00    0.0000000000E+00    0.1712927818E+00    0.3057852268E+01    0.3062646151E+01
   -0.3460057825E-01   -0.7069999725E-01    0.0000000000E+00   -0.8677900434E+00    0.2722733915E+00    0.0000000000E+00    0.2672867775E+01    0.2998584807E+00    0.0000000000E+00    0.9095011353E+00    0.2689635277E+01    0.2839248180E+01
   -0.3761240095E-01   -0.7069999725E-01    0.0000000000E+00   -0.9787302613E+00    0.4571128786E+00    0.0000000000E+00    0.5307283401E+00    0.2485641278E-01    0.0000000000E+00    0.1080215335E+01    0.5313100815E+00    0.1203808784E+01
   -0.4062422365E-01   -0.7069999725E-01    0.0000000000E+00   -0.2109179497E+00    0.5979795456E+00    0.0000000000E+00   -0.2692064285E+01   -0.2008674145E+00    0.0000000000E+00    0.6340866685E+00    0.2699547768E+01    0.2773017168E+01
   -0.4363604262E-01   -0.7069999725E-01    0.0000000000E+00    0.8707342148E+00    0.5877370238E+00    0.0000000000E+00   -0.5586460114E+01   -0.3065095246E+00    0.0000000000E+00    0.1050529838E+01    0.5594862461E+01    0.5692635536E+01
   -0.4663372412E-01   -0.7069999725E-01    0.0000000000E+00    0.1580552101E+01    0.5133154988E+00    0.0000000000E+00   -0.6871337891E+01   -0.3640210330E+00    0.0000000000E+00    0.1661817551E+01    0.6880973816E+01    0.7078802109E+01
   -0.4964553937E-01   -0.7069999725E-01    0.0000000000E+00    0.1386403680E+01    0.3185435236E+00    0.0000000000E+00   -0.5836705685E+01   -0.3313889205E+00    0.0000000000E+00    0.1422527671E+01    0.5846105576E+01    0.6016688347E+01
   -0.5265736207E-01   -0.7069999725E-01    0.0000000000E+00   -0.1120554507E+00    0.7097460330E-02    0.0000000000E+00   -0.2511399031E+01   -0.2828226984E+00    0.0000000000E+00    0.1122800037E+00    0.2527273893E+01    0.2529767036E+01
   -0.5566918477E-01   -0.7069999725E-01    0.0000000000E+00   -0.2700104952E+01   -0.3092303574E+00    0.0000000000E+00    0.1987767577E+01   -0.2709344923E+00    0.0000000000E+00    0.2717754602E+01    0.2006146908E+01    0.3377989769E+01
   -0.5866686255E-01   -0.7069999725E-01    0.0000000000E+00   -0.5756902218E+01   -0.6937680840E+00    0.0000000000E+00    0.5936100006E+01   -0.2986835539E+00    0.0000000000E+00    0.5798554897E+01    0.5943609238E+01    0.8303597450E+01
   -0.6167868152E-01   -0.7069999725E-01    0.0000000000E+00   -0.7680582523E+01   -0.7234675288E+00    0.0000000000E+00    0.7814353943E+01   -0.3909789026E+00    0.0000000000E+00    0.7714580536E+01    0.7824129105E+01    0.1098779964E+02
   -0.6469050050E-01   -0.7069999725E-01    0.0000000000E+00   -0.1055311871E+02   -0.3441932440E+01    0.0000000000E+00    0.7519702435E+01    0.1576944292E+00    0.0000000000E+00    0.1110023499E+02    0.7521355629E+01    0.1340843105E+02
   -0.6770232320E-01   -0.7069999725E-01    0.0000000000E+00   -0.1222751236E+02   -0.2410628557E+01    0.0000000000E+00    0.7193209171E+01    0.2093902826E+01    0.0000000000E+00    0.1246287251E+02    0.7491775036E+01    0.1454131603E+02
    0.8025110699E-02    0.2212909982E-02    0.0000000000E+00   -0.1516457081E+02   -0.1456840992E+02    0.0000000000E+00   -0.2250975609E+02   -0.3110539818E+02    0.0000000000E+00    0.2102861786E+02    0.3839576721E+02    0.4377713776E+02
    0.1005022041E-01    0.4425819963E-02    0.0000000000E+00   -0.2278006172E+02   -0.2558232307E+02    0.0000000000E+00   -0.4662021160E+01   -0.9034184456E+01    0.0000000000E+00    0.3425473022E+02    0.1016616631E+02    0.3573146057E+02
    0.1206886023E-01    0.6631660275E-02    0.0000000000E+00   -0.1845842934E+02   -0.2252467346E+02    0.0000000000E+00    0.9108100891E+01    0.8125061989E+01    0.0000000000E+00    0.2912171936E+02    0.1220549583E+02    0.3157607841E+02
    0.1409397088E-01    0.8844570257E-02    0.0000000000E+00   -0.7224502087E+01   -0.1045505047E+02    0.0000000000E+00    0.1594393826E+02    0.1730290413E+02    0.0000000000E+00    0.1270832443E+02    0.2352869797E+02    0.2674137688E+02
    0.1611261070E-01    0.1105041057E-01    0.0000000000E+00    0.5473742008E+01    0.3951249123E+01    0.0000000000E+00    0.1471237087E+02    0.1732381439E+02    0.0000000000E+00    0.6750867844E+01    0.2272813988E+02    0.2370954704E+02